# vtk DataFile Version 3.0
vtk output
ASCII
DATASET STRUCTURED_POINTS
DIMENSIONS 37 45 10
SPACING 1 1 2.6
ORIGIN 108 101 96.2
CELL_DATA 14256
POINT_DATA 16650
SCALARS scalars float
LOOKUP_TABLE default
7229 5652 3328 1870 1761 2132 2194 2137 2414 
2866 3090 3116 3177 3189 3004 3063 3960 5263 
5588 4270 2483 1477 1121 831 669 1324 2597 
3269 2834 2098 1942 2196 2265 2157 2224 2446 
2545 6811 5249 3272 2080 1913 2101 2141 2234 
2578 2914 3022 3058 3118 3049 3015 3701 5255 
6419 5679 3426 1856 1694 1790 1313 928 1769 
3277 3852 3141 2334 2287 2542 2465 2230 2227 
2337 2311 5306 4166 3038 2505 2479 2513 2477 
2613 2912 3058 3001 2988 3009 2888 2968 3897 
5356 5707 3907 1502 958 1845 2172 1212 448 
1447 3313 4116 3541 2896 2934 3105 2883 2559 
2486 2490 2400 3667 3161 2831 2840 2980 2970 
2870 2930 3075 3037 2891 2933 3089 3085 3138 
3657 4224 3567 1443 48 762 2360 2578 1162 
246 1347 3326 4235 3839 3385 3456 3512 3204 
2870 2772 2726 2623 2983 2942 2932 3031 3156 
3135 3012 2979 2986 2850 2711 2883 3281 3493 
3431 3295 2898 1678 95 136 1651 3389 3279 
1664 902 1991 3676 4261 3768 3401 3508 3507 
3172 2879 2809 2767 2654 3208 3373 3425 3416 
3385 3288 3169 3155 3160 3027 2913 3125 3567 
3747 3457 2927 2211 1133 308 1036 3048 4518 
3998 2267 1659 2693 3964 4049 3345 3045 3232 
3221 2880 2634 2611 2567 2408 3455 3725 4008 
4137 4041 3818 3703 3825 3955 3877 3786 3948 
4122 3835 3148 2606 2262 1724 1389 2322 4211 
5361 4425 2455 1789 2783 3804 3631 2925 2788 
3046 2983 2616 2422 2427 2320 2086 3265 3552 
4168 4674 4707 4412 4297 4557 4808 4774 4756 
4950 4856 4033 3048 2811 3047 2819 2386 3102 
4973 6002 4691 2354 1570 2567 3497 3270 2704 
2735 2996 2850 2496 2404 2422 2206 1922 2941 
3039 3659 4356 4564 4322 4234 4540 4786 4731 
4828 5234 5211 4372 3690 4085 4678 4099 2967 
3388 5512 6661 5014 2316 1537 2677 3582 3217 
2570 2542 2726 2590 2402 2497 2538 2238 1975 
2752 2555 2781 3271 3508 3495 3504 3763 3859 
3699 3885 4547 4865 4494 4735 5987 6662 5277 
3236 3420 5869 7202 5288 2333 1684 3127 4174 
3658 2693 2314 2297 2244 2320 2610 2684 2383 
2193 2514 2210 2092 2250 2369 2468 2581 2806 
2782 2550 2732 3423 3932 4076 5159 7099 7833 
5938 3413 3428 5904 7273 5264 2287 1797 3561 
5050 4795 3698 2894 2501 2362 2519 2850 2935 
2705 2571 2093 1935 1846 1901 1921 2026 2193 
2412 2361 2140 2294 2834 3174 3361 4433 6548 
7556 6032 3807 3664 5672 6831 5012 2385 2085 
4031 6092 6506 5661 4611 3797 3297 3189 3331 
3393 3270 3162 1779 1750 1848 2023 2067 2118 
2249 2467 2482 2342 2478 2863 2923 2660 3166 
5007 6484 6031 4615 4291 5513 6316 4928 2991 
2999 4941 7205 7981 7327 6258 5286 4470 3957 
3832 3880 3868 3763 1851 1745 1841 2100 2231 
2229 2267 2468 2579 2510 2602 2927 2936 2420 
2374 3786 5632 6238 5648 5242 5792 6258 5333 
4181 4563 6277 7963 8153 7185 6217 5527 4794 
4133 3882 3951 3980 3891 2151 1904 1814 1991 
2161 2124 2078 2247 2427 2389 2403 2721 2918 
2569 2336 3335 5194 6404 6471 6257 6538 6808 
6233 5671 6193 7318 7792 6781 5258 4492 4330 
3984 3491 3291 3379 3397 3319 2274 2002 1797 
1870 2029 1993 1904 2033 2238 2233 2205 2507 
2874 2773 2529 3166 4790 6274 6917 7092 7392 
7636 7341 7034 7194 7338 6598 4798 3197 2771 
2976 2915 2628 2524 2580 2529 2426 2379 2184 
1955 1927 2034 2019 1925 1997 2191 2252 2262 
2532 2901 2857 2554 2946 4398 6118 7197 7610 
7902 8219 8215 7869 7266 6356 4979 3375 2396 
2352 2574 2482 2240 2149 2130 2005 1867 2387 
2240 2064 2035 2139 2157 2062 2071 2234 2363 
2438 2661 2937 2864 2536 2820 4268 6163 7397 
7762 7905 8260 8433 7882 6589 5056 3730 2886 
2679 2830 2856 2625 2386 2264 2162 2000 1882 
2336 2191 2079 2092 2213 2260 2180 2157 2294 
2450 2542 2690 2874 2821 2598 2900 4282 6152 
7393 7710 7709 7911 7947 7135 5554 3993 3048 
2800 2934 3037 2934 2718 2555 2440 2300 2164 
2131 2257 2132 2078 2115 2223 2282 2245 2249 
2383 2536 2598 2645 2734 2723 2610 2836 3904 
5522 6860 7514 7628 7489 7002 5918 4518 3387 
2833 2771 2851 2815 2672 2558 2503 2420 2278 
2176 2208 2228 2126 2098 2134 2208 2256 2265 
2324 2477 2627 2666 2632 2618 2609 2557 2605 
3155 4349 5861 7157 7646 7150 5992 4674 3668 
3081 2798 2722 2719 2664 2555 2480 2450 2368 
2210 2098 2115 2281 2147 2101 2141 2192 2209 
2231 2321 2475 2617 2671 2618 2544 2555 2610 
2567 2615 3266 4778 6599 7471 6736 5056 3628 
3036 2909 2793 2698 2730 2777 2714 2608 2539 
2441 2271 2130 2092 2340 2150 2086 2140 2171 
2151 2166 2250 2356 2464 2550 2533 2462 2546 
2781 2796 2526 2686 4004 5980 6973 6055 4129 
2809 2616 2803 2753 2627 2697 2819 2782 2663 
2594 2524 2391 2270 2210 2361 2166 2118 2152 
2130 2089 2129 2202 2230 2284 2396 2422 2364 
2495 2842 2915 2526 2485 3683 5549 6328 5188 
3285 2292 2431 2728 2640 2484 2554 2664 2616 
2521 2502 2486 2421 2365 2322 2379 2244 2222 
2183 2074 2037 2139 2218 2187 2207 2338 2382 
2308 2408 2714 2747 2381 2457 3706 5338 5709 
4385 2748 2179 2469 2655 2480 2369 2475 2544 
2465 2401 2412 2400 2359 2355 2334 2398 2339 
2326 2213 2045 2027 2164 2235 2187 2225 2390 
2440 2342 2383 2598 2585 2312 2549 3753 5041 
5059 3774 2573 2364 2618 2596 2369 2353 2501 
2527 2438 2409 2415 2350 2281 2299 2301 2366 
2365 2356 2230 2079 2076 2182 2205 2161 2256 
2471 2543 2441 2444 2611 2617 2438 2658 3549 
4406 4261 3272 2554 2568 2731 2593 2380 2386 
2466 2418 2334 2345 2353 2266 2203 2245 2271 
2304 2329 2328 2236 2141 2149 2196 2164 2132 
2276 2529 2628 2539 2512 2620 2635 2511 2623 
3143 3620 3461 2843 2509 2622 2741 2627 2467 
2407 2333 2194 2105 2117 2129 2101 2119 2189 
2207 2294 2309 2313 2244 2172 2174 2195 2160 
2160 2316 2547 2647 2593 2548 2550 2487 2392 
2504 2843 3094 2948 2594 2466 2577 2660 2612 
2517 2413 2259 2094 1993 1946 1925 1965 2067 
2130 2099 2316 2306 2322 2259 2166 2139 2165 
2182 2230 2359 2511 2582 2598 2604 2532 2366 
2286 2479 2805 2949 2784 2541 2476 2522 2536 
2503 2460 2395 2295 2196 2101 1989 1913 1956 
2063 2096 2046 2265 2257 2303 2265 2167 2118 
2140 2191 2267 2355 2414 2452 2544 2654 2614 
2417 2325 2529 2839 2932 2747 2533 2473 2475 
2430 2361 2324 2315 2310 2287 2215 2094 2005 
2012 2070 2105 2122 2165 2194 2246 2235 2188 
2165 2171 2198 2248 2292 2291 2298 2414 2586 
2618 2465 2367 2518 2771 2837 2656 2457 2409 
2431 2387 2273 2191 2193 2236 2239 2175 2091 
2046 2041 2064 2139 2257 2166 2228 2218 2179 
2187 2227 2239 2232 2243 2243 2201 2177 2262 
2404 2445 2357 2328 2494 2712 2747 2567 2383 
2351 2398 2371 2247 2141 2138 2186 2181 2111 
2056 2050 2053 2064 2156 2317 2272 2336 2242 
2136 2142 2216 2272 2301 2319 2287 2198 2146 
2200 2276 2258 2204 2303 2577 2798 2769 2553 
2371 2327 2339 2307 2237 2199 2216 2244 2222 
2154 2098 2080 2071 2071 2132 2260 2281 2342 
2231 2106 2079 2141 2247 2377 2468 2431 2295 
2218 2262 2293 2201 2123 2295 2665 2902 2809 
2539 2344 2274 2237 2205 2228 2298 2342 2327 
2278 2218 2151 2092 2061 2061 2091 2148 2100 
2168 2120 2062 2049 2091 2218 2423 2589 2578 
2429 2330 2352 2343 2187 2049 2198 2594 2865 
2769 2464 2240 2174 2163 2167 2232 2339 2384 
2335 2258 2196 2126 2048 2017 2048 2077 2060 
1874 1972 1999 2034 2082 2122 2205 2377 2554 
2591 2488 2396 2381 2321 2124 1956 2081 2480 
2798 2741 2414 2149 2112 2191 2235 2251 2289 
2317 2276 2193 2127 2075 2020 2005 2054 2091 
2035 1756 1914 2006 2093 2167 2176 2155 2203 
2328 2420 2422 2400 2384 2294 2102 1982 2153 
2570 2894 2833 2467 2158 2133 2269 2323 2258 
2205 2214 2198 2124 2064 2055 2053 2040 2055 
2083 2062 1698 1933 2100 2199 2234 2172 2049 
1988 2056 2188 2299 2376 2406 2339 2204 2183 
2430 2844 3102 2970 2559 2226 2185 2304 2334 
2230 2137 2122 2098 2021 1980 2028 2081 2060 
2016 2029 2091 1606 1864 2088 2208 2218 2127 
1989 1912 1953 2080 2220 2335 2396 2373 2320 
2405 2723 3115 3274 3047 2610 2298 2243 2297 
2272 2165 2080 2037 1972 1896 1897 1986 2057 
2029 1966 1978 2070 1506 1691 1910 2076 2148 
2129 2070 2038 2064 2129 2207 2278 2320 2313 
2327 2518 2933 3343 3422 3094 2633 2366 2313 
2279 2171 2069 2022 1966 1876 1841 1914 2009 
2026 1982 1963 1993 2012 1451 1531 1716 1930 
2098 2185 2209 2204 2194 2189 2206 2248 2279 
2261 2283 2535 3058 3537 3572 3136 2620 2372 
2316 2203 2033 1964 1980 1935 1849 1885 2032 
2092 2007 1939 2000 2064 1972 1430 1462 1632 
1857 2060 2188 2233 2224 2189 2158 2176 2268 
2355 2332 2283 2493 3049 3572 3575 3050 2487 
2251 2189 2048 1891 1893 1967 1931 1861 1949 
2115 2114 1957 1903 2031 2104 1928 1471 1469 
1601 1793 1974 2086 2128 2145 2144 2114 2128 
2279 2454 2432 2293 2438 2996 3503 3413 2806 
2265 2103 2073 1944 1842 1900 1975 1924 1878 
1979 2089 2026 1888 1899 2024 2014 1775 1635 
1525 1544 1690 1877 1996 2065 2159 2217 2150 
2092 2246 2465 2419 2241 2490 3227 3741 3448 
2636 2108 2081 2132 2015 1929 1983 2005 1928 
1910 1997 2016 1911 1847 1911 1934 1767 1497 
6383 5924 5394 5134 4983 4397 3330 2458 2261 
2415 2431 2324 2353 2468 2515 2664 3112 3564 
3518 2952 2285 1735 1115 535 652 1722 2952 
3384 2968 2479 2459 2726 2866 2785 2607 2448 
2362 6457 5711 4568 3734 3522 3420 2982 2452 
2259 2337 2382 2350 2360 2351 2246 2241 2525 
2792 2604 2053 1606 1405 1132 725 734 1518 
2489 2946 2861 2753 2889 3049 3010 2851 2734 
2642 2479 6698 5994 4744 3580 3050 2899 2680 
2407 2306 2325 2280 2203 2208 2200 2064 1910 
1941 2012 1867 1613 1565 1686 1650 1346 1156 
1462 2000 2388 2588 2757 2880 2840 2694 2608 
2589 2470 2251 6361 6009 5225 4144 3301 2838 
2559 2391 2387 2437 2368 2211 2128 2102 1997 
1804 1695 1698 1720 1791 2005 2228 2266 2075 
1859 1851 2012 2225 2459 2630 2599 2434 2367 
2439 2390 2102 2023 5384 5432 5293 4548 3612 
2929 2510 2261 2212 2324 2413 2373 2306 2279 
2213 2040 1882 1860 1970 2165 2376 2469 2417 
2318 2271 2270 2282 2333 2453 2490 2336 2217 
2362 2532 2301 1918 2336 4520 4683 4849 4431 
3705 3110 2666 2243 1935 1893 2058 2260 2415 
2506 2496 2379 2240 2190 2265 2428 2546 2480 
2288 2188 2266 2356 2337 2306 2349 2315 2165 
2194 2504 2606 2178 2021 3230 4437 4350 4292 
4006 3675 3490 3314 2919 2353 1899 1758 1907 
2144 2278 2289 2287 2312 2355 2435 2596 2726 
2635 2371 2194 2212 2261 2215 2204 2284 2273 
2167 2255 2507 2403 1953 2323 4273 4904 4489 
3948 3565 3604 3930 4267 4257 3770 3049 2438 
2089 1901 1735 1653 1790 2039 2231 2364 2593 
2842 2844 2601 2365 2292 2281 2252 2322 2476 
2508 2395 2347 2336 2090 1937 2902 5193 5065 
4611 3777 3190 3261 3856 4632 5145 5126 4660 
3976 3191 2382 1787 1649 1902 2151 2153 2071 
2285 2702 2846 2631 2360 2322 2401 2409 2421 
2521 2600 2510 2288 2065 1990 2445 3853 5949 
4426 4315 3603 2928 2798 3225 3970 4657 5067 
5197 5031 4426 3516 2890 3006 3468 3494 2810 
2050 2060 2697 3020 2698 2213 2170 2410 2384 
2110 1981 2105 2156 1955 1817 2215 3325 4875 
6488 3315 3450 3120 2668 2438 2504 2837 3248 
3659 4130 4595 4680 4319 4224 5034 6123 6099 
4619 2974 2717 3640 4169 3511 2411 2037 2360 
2414 2006 1698 1771 1881 1804 1926 2720 4034 
5333 6449 2419 2497 2476 2399 2268 2119 2122 
2218 2318 2611 3259 3902 4132 4498 5887 7809 
8349 6787 4776 4435 5666 6370 5214 3233 2299 
2740 3356 3451 3246 3014 2740 2498 2650 3337 
4240 4955 5607 2104 1892 1907 2087 2134 2022 
2027 2109 2019 1944 2339 3016 3324 3546 4866 
7312 8780 8005 6417 6294 7743 8499 6917 4347 
3198 4024 5567 6516 6500 5734 4684 3880 3670 
3853 4015 4062 4272 2187 1789 1654 1849 1988 
1964 2083 2345 2350 2137 2258 2708 2743 2412 
3066 5347 7458 7751 6985 7185 8593 9188 7474 
5139 4581 5982 7992 9132 8913 7655 6015 4706 
4072 3825 3526 3201 3138 2443 2046 1779 1854 
1952 1897 1990 2331 2504 2378 2436 2790 2718 
2031 1963 3576 5728 6678 6636 6929 7880 8047 
6549 5278 5874 7581 8945 9049 8183 6889 5440 
4152 3450 3219 3007 2719 2611 2622 2329 2051 
2040 2066 1939 1919 2185 2400 2351 2418 2804 
2897 2310 1923 2873 4680 5844 6083 6141 6250 
5846 4869 4949 6454 7827 7780 6426 5090 4317 
3659 2911 2516 2590 2681 2551 2495 2599 2396 
2193 2188 2222 2114 2047 2212 2393 2363 2369 
2676 2910 2621 2281 2845 4306 5536 5839 5383 
4595 3848 3637 4706 6223 6704 5529 3594 2506 
2441 2503 2282 2190 2415 2574 2455 2388 2451 
2308 2192 2237 2343 2325 2251 2324 2492 2532 
2486 2598 2794 2714 2482 2815 4036 5306 5593 
4689 3483 2990 3655 4973 5624 5117 3751 2460 
2081 2357 2557 2495 2448 2520 2498 2317 2205 
2356 2262 2204 2274 2430 2475 2368 2330 2483 
2633 2624 2626 2762 2775 2560 2671 3651 4874 
5135 4197 3247 3518 4829 5664 5070 3852 2951 
2668 2784 2894 2862 2752 2614 2471 2336 2220 
2134 2377 2314 2267 2306 2448 2516 2408 2314 
2433 2622 2665 2678 2836 2907 2681 2627 3375 
4444 4713 4135 3946 5008 6370 6259 4629 3157 
2780 3022 3085 2864 2699 2629 2466 2261 2195 
2233 2209 2425 2359 2283 2260 2350 2441 2419 
2397 2526 2693 2724 2734 2891 2980 2784 2685 
3247 4146 4564 4628 5241 6604 7374 6280 4144 
2793 2727 3009 2864 2539 2469 2503 2361 2187 
2198 2280 2248 2436 2342 2231 2167 2220 2322 
2383 2470 2657 2827 2840 2801 2871 2916 2768 
2670 3046 3801 4523 5300 6395 7419 7274 5574 
3555 2587 2693 2930 2792 2596 2612 2625 2461 
2298 2280 2274 2181 2456 2325 2192 2133 2182 
2267 2324 2414 2598 2786 2849 2811 2792 2781 
2686 2580 2732 3336 4366 5672 6797 7082 6118 
4384 2992 2542 2723 2910 2887 2820 2792 2706 
2542 2403 2326 2250 2164 2509 2341 2202 2161 
2211 2277 2303 2319 2398 2553 2691 2717 2664 
2630 2622 2553 2540 2991 4160 5641 6453 5971 
4547 3208 2620 2610 2720 2744 2737 2723 2667 
2593 2531 2450 2340 2267 2274 2529 2342 2213 
2167 2186 2246 2293 2280 2268 2369 2543 2606 
2524 2492 2583 2603 2538 2887 4023 5374 5783 
4820 3351 2518 2500 2668 2611 2476 2468 2518 
2540 2573 2603 2515 2343 2276 2363 2478 2310 
2218 2159 2121 2151 2221 2239 2231 2333 2521 
2581 2480 2455 2584 2612 2508 2800 3836 4974 
5114 4079 2872 2424 2576 2662 2496 2385 2473 
2606 2689 2751 2730 2533 2284 2215 2314 2419 
2304 2259 2212 2135 2107 2146 2176 2200 2325 
2523 2605 2550 2553 2632 2545 2352 2596 3533 
4481 4516 3654 2816 2597 2684 2619 2456 2471 
2633 2750 2785 2774 2648 2382 2160 2143 2225 
2419 2342 2323 2303 2232 2174 2184 2205 2217 
2301 2464 2570 2583 2615 2638 2474 2259 2492 
3307 4052 3990 3279 2714 2625 2662 2543 2431 
2485 2571 2555 2500 2458 2347 2167 2081 2147 
2216 2440 2364 2344 2337 2282 2243 2288 2345 
2346 2352 2421 2471 2464 2483 2513 2429 2343 
2615 3282 3785 3582 2916 2473 2449 2506 2438 
2381 2403 2367 2233 2135 2133 2130 2093 2113 
2194 2237 2419 2337 2321 2305 2240 2213 2303 
2423 2463 2446 2431 2384 2302 2283 2346 2385 
2440 2722 3229 3543 3287 2708 2344 2322 2381 
2369 2372 2404 2351 2202 2092 2085 2121 2148 
2181 2211 2216 2378 2329 2327 2288 2194 2147 
2221 2351 2428 2435 2399 2325 2246 2239 2303 
2359 2421 2620 2962 3188 3050 2690 2436 2370 
2374 2381 2424 2481 2460 2345 2217 2147 2142 
2176 2212 2216 2205 2379 2395 2386 2312 2208 
2153 2185 2267 2333 2340 2295 2247 2253 2315 
2373 2384 2397 2509 2716 2884 2874 2720 2552 
2434 2377 2382 2429 2456 2408 2293 2174 2104 
2108 2163 2218 2236 2250 2413 2483 2450 2339 
2248 2218 2238 2289 2346 2345 2262 2185 2213 
2324 2406 2427 2471 2605 2773 2863 2819 2678 
2513 2367 2283 2287 2338 2343 2248 2113 2044 
2078 2155 2201 2204 2212 2266 2408 2502 2465 
2356 2287 2280 2300 2353 2439 2473 2379 2237 
2197 2282 2375 2425 2530 2757 2984 3024 2843 
2585 2388 2262 2184 2183 2263 2317 2244 2111 
2084 2195 2291 2250 2147 2123 2205 2332 2427 
2419 2354 2322 2330 2344 2383 2476 2552 2513 
2390 2313 2329 2358 2369 2478 2754 3033 3065 
2808 2489 2312 2255 2215 2209 2290 2382 2355 
2246 2216 2292 2318 2207 2084 2083 2168 2225 
2314 2322 2292 2306 2365 2406 2421 2453 2501 
2520 2499 2465 2415 2333 2287 2410 2699 2948 
2932 2660 2378 2274 2299 2319 2314 2340 2375 
2346 2263 2217 2217 2187 2117 2098 2164 2226 
2138 2221 2231 2195 2223 2336 2442 2467 2437 
2411 2429 2481 2491 2389 2227 2192 2414 2760 
2944 2816 2501 2259 2215 2285 2335 2328 2303 
2277 2233 2175 2136 2118 2104 2110 2169 2254 
2281 2073 2174 2224 2193 2177 2250 2368 2429 
2398 2338 2342 2413 2435 2307 2122 2127 2433 
2835 2999 2807 2449 2210 2179 2240 2259 2228 
2207 2209 2192 2152 2136 2158 2182 2187 2197 
2233 2242 2009 2143 2286 2320 2256 2207 2240 
2300 2297 2255 2279 2377 2421 2311 2155 2176 
2453 2811 2980 2834 2515 2279 2226 2247 2213 
2148 2142 2185 2189 2153 2163 2238 2282 2240 
2172 2153 2169 1957 2091 2285 2404 2364 2246 
2189 2210 2216 2189 2219 2327 2396 2344 2273 
2355 2605 2875 2996 2884 2618 2387 2293 2267 
2212 2136 2108 2113 2089 2061 2111 2217 2268 
2220 2143 2113 2133 1954 2032 2161 2296 2342 
2283 2216 2213 2223 2188 2161 2211 2286 2303 
2341 2554 2935 3236 3249 2997 2655 2406 2275 
2211 2154 2107 2061 2002 1956 1976 2068 2159 
2183 2146 2102 2092 2112 2008 2026 2035 2116 
2234 2269 2221 2208 2234 2190 2094 2107 2233 
2311 2376 2682 3318 3797 3669 3096 2565 2334 
2222 2118 2029 2032 2024 1950 1923 2019 2138 
2159 2109 2063 2043 2051 2074 2064 2078 2027 
2068 2212 2269 2186 2139 2175 2129 2019 2105 
2365 2455 2380 2697 3595 4300 4003 3038 2332 
2244 2270 2095 1942 1994 2048 1963 1936 2089 
2224 2174 2064 2041 2057 2046 2030 2071 2112 
2072 2130 2290 2319 2179 2109 2160 2111 2005 
2164 2500 2502 2230 2588 3802 4759 4266 2888 
2031 2143 2372 2167 1941 2013 2106 1985 1913 
2077 2221 2146 2055 2126 2193 2106 1980 2058 
2085 2052 2122 2282 2312 2212 2208 2303 2253 
2125 2247 2502 2366 2005 2451 3961 5131 4551 
2863 1816 1972 2359 2238 1981 2011 2105 2003 
1929 2065 2180 2109 2073 2218 2307 2145 1911 
8741 8324 7944 7861 7631 6368 4170 2351 1951 
2485 2701 2401 2141 2077 1943 1801 1941 2275 
2480 2567 2685 2634 2105 1443 1347 1856 2385 
2502 2389 2327 2318 2337 2456 2599 2557 2360 
2273 8252 7281 6328 6290 7072 7113 5436 3107 
1929 2249 2745 2620 2279 2105 1922 1646 1570 
1786 2028 2201 2433 2661 2589 2298 2193 2344 
2473 2398 2318 2372 2415 2363 2304 2294 2265 
2240 2257 7787 6590 5372 5231 6493 7501 6491 
3973 2071 1958 2592 2668 2277 2035 1982 1827 
1645 1674 1860 2035 2205 2432 2598 2629 2597 
2527 2389 2201 2129 2214 2296 2263 2179 2167 
2245 2318 2242 7616 6565 5605 5474 6657 7899 
7298 4824 2436 1781 2360 2625 2259 1947 2005 
2069 1941 1869 1996 2145 2183 2230 2387 2551 
2575 2445 2256 2111 2077 2142 2217 2235 2240 
2315 2406 2323 2058 7745 6928 6423 6408 7212 
8182 7816 5669 3082 1793 2048 2520 2435 2146 
2119 2206 2135 2055 2184 2380 2411 2335 2367 
2482 2494 2378 2275 2269 2296 2296 2314 2392 
2472 2452 2272 2013 2008 7898 7192 6955 7018 
7431 8047 7939 6381 3929 2047 1705 2245 2575 
2481 2340 2307 2214 2100 2188 2441 2577 2514 
2450 2470 2445 2342 2315 2424 2500 2460 2476 
2622 2625 2255 1810 1972 2984 7647 7088 6946 
7032 7168 7465 7543 6714 4850 2805 1817 1972 
2344 2409 2339 2353 2316 2161 2115 2295 2474 
2468 2398 2391 2365 2265 2237 2359 2468 2485 
2556 2646 2412 1852 1775 3020 5191 6693 6536 
6584 6734 6723 6649 6642 6423 5565 4120 2856 
2280 2110 2002 1984 2140 2295 2281 2211 2254 
2354 2389 2386 2411 2414 2349 2303 2355 2434 
2469 2453 2288 1948 1882 2929 5218 7651 5100 
5427 5731 5984 5950 5652 5464 5607 5746 5331 
4380 3414 2734 2281 1946 1828 1961 2195 2341 
2378 2411 2490 2563 2594 2616 2659 2697 2688 
2605 2429 2149 1863 1971 2988 5055 7406 8896 
3599 4155 4554 4810 4807 4534 4345 4618 5177 
5433 5149 4725 4447 4034 3210 2261 1795 1899 
2152 2256 2303 2419 2496 2467 2499 2711 2954 
2963 2658 2218 1949 2200 3306 5212 7322 8624 
8809 2756 3180 3437 3569 3591 3527 3538 3742 
4019 4218 4508 5243 6217 6551 5698 4116 2770 
2110 1917 1864 1872 1930 1915 1841 1928 2269 
2633 2638 2260 2006 2480 3872 5878 7769 8822 
8882 8358 2553 2716 2768 2782 2817 2924 3072 
3085 2864 2716 3240 4743 6684 7995 7966 6745 
5093 3592 2611 2139 1949 1812 1686 1718 1973 
2274 2360 2102 1854 2365 3989 6259 8269 9320 
9325 8735 8087 2510 2512 2471 2468 2536 2684 
2794 2653 2273 2069 2553 3836 5567 7247 8349 
8441 7555 6019 4668 3919 3515 3160 3009 3333 
3862 3920 3254 2356 2219 3486 5723 7829 9029 
9188 8711 8074 7500 2368 2297 2226 2241 2346 
2488 2548 2432 2245 2256 2593 3127 3857 5061 
6719 8164 8655 8030 7112 6540 6159 5750 5679 
6309 7046 6735 5184 3553 3271 4609 6415 7523 
7703 7387 6972 6581 6234 2329 2186 2036 1993 
2062 2191 2307 2343 2336 2430 2630 2725 2719 
3153 4549 6566 8138 8640 8504 8366 8235 7987 
8030 8721 9359 8667 6561 4519 4086 4990 5811 
5824 5397 5057 4875 4802 4957 2541 2360 2136 
1985 1919 1963 2133 2293 2294 2253 2383 2555 
2490 2457 3222 5028 6976 8182 8559 8662 8705 
8636 8719 9196 9397 8364 6243 4473 4100 4501 
4558 4118 3729 3616 3613 3797 4413 2738 2614 
2430 2242 2047 1953 2080 2279 2285 2178 2297 
2627 2743 2606 2916 4258 6159 7670 8281 8272 
8096 8057 8285 8547 8193 6811 4933 3714 3582 
3777 3650 3379 3335 3441 3498 3685 4217 2640 
2607 2545 2430 2242 2097 2153 2348 2467 2476 
2579 2829 2970 2858 2931 3859 5670 7527 8464 
8195 7427 7160 7614 7939 7233 5578 3927 3186 
3247 3381 3335 3353 3529 3645 3576 3488 3502 
2413 2416 2429 2405 2341 2279 2301 2453 2659 
2784 2813 2886 3014 2986 2874 3392 5166 7571 
8975 8423 6925 6352 7095 7687 6872 5087 3663 
3242 3302 3253 3183 3290 3413 3311 3007 2673 
2378 2400 2406 2394 2382 2425 2459 2439 2482 
2662 2795 2740 2738 2986 3117 2838 2931 4569 
7302 8939 8083 6120 5538 6623 7359 6401 4625 
3554 3430 3383 3068 2891 2972 2932 2591 2187 
1929 1778 2591 2620 2533 2455 2519 2579 2486 
2427 2586 2739 2658 2646 2998 3235 2862 2705 
4161 6786 8170 6999 5079 4925 6264 6771 5471 
3778 3177 3354 3231 2775 2606 2708 2587 2206 
1957 1954 1996 2706 2740 2574 2430 2487 2550 
2439 2399 2642 2874 2803 2748 3033 3190 2779 
2638 3972 6153 6946 5616 4251 4765 6131 6120 
4468 2979 2808 3146 2978 2565 2519 2662 2553 
2317 2293 2388 2354 2664 2620 2388 2231 2304 
2396 2365 2451 2781 3014 2915 2823 2984 2975 
2570 2599 3833 5421 5610 4409 3856 4895 5983 
5429 3704 2618 2741 3034 2817 2528 2573 2669 
2559 2463 2535 2536 2352 2623 2464 2200 2069 
2155 2264 2322 2502 2793 2888 2727 2669 2804 
2725 2413 2615 3682 4681 4477 3636 3765 4905 
5469 4531 3064 2496 2788 2959 2742 2595 2653 
2616 2446 2400 2470 2409 2246 2645 2435 2196 
2094 2151 2233 2309 2474 2642 2606 2440 2446 
2592 2539 2379 2678 3500 4068 3779 3363 3808 
4633 4624 3543 2487 2346 2690 2787 2670 2688 
2748 2592 2360 2328 2416 2392 2318 2626 2452 
2280 2194 2205 2247 2301 2396 2470 2430 2359 
2413 2510 2454 2385 2655 3217 3566 3448 3419 
3876 4238 3831 2845 2192 2259 2521 2572 2585 
2738 2810 2619 2393 2386 2487 2472 2389 2549 
2436 2333 2257 2231 2248 2288 2328 2349 2363 
2425 2540 2583 2484 2408 2558 2869 3101 3208 
3476 3874 3909 3352 2599 2258 2357 2457 2433 
2489 2667 2725 2571 2422 2437 2482 2403 2278 
2535 2461 2393 2319 2256 2245 2274 2277 2242 
2265 2414 2601 2654 2557 2488 2546 2651 2761 
2987 3438 3820 3709 3136 2582 2428 2506 2482 
2381 2393 2497 2512 2416 2358 2379 2353 2235 
2144 2591 2542 2483 2390 2287 2247 2265 2243 
2172 2180 2335 2510 2560 2535 2574 2644 2635 
2657 2944 3479 3811 3583 2996 2556 2498 2568 
2508 2383 2346 2375 2355 2292 2276 2293 2254 
2162 2123 2582 2561 2511 2401 2286 2251 2273 
2255 2211 2240 2333 2368 2346 2415 2601 2706 
2646 2683 3074 3619 3793 3405 2820 2510 2540 
2608 2539 2419 2367 2366 2340 2285 2250 2238 
2209 2156 2126 2459 2485 2468 2369 2275 2269 
2305 2317 2342 2407 2409 2283 2205 2365 2629 
2684 2559 2652 3137 3620 3594 3096 2624 2515 
2630 2665 2558 2431 2367 2350 2342 2314 2257 
2188 2145 2135 2139 2349 2430 2459 2378 2294 
2296 2337 2375 2448 2526 2471 2287 2233 2458 
2705 2650 2454 2575 3068 3428 3252 2768 2486 
2542 2649 2596 2460 2355 2281 2237 2255 2291 
2254 2157 2124 2202 2295 2341 2451 2495 2394 
2282 2279 2338 2391 2467 2547 2506 2350 2321 
2528 2698 2568 2388 2589 3091 3340 3055 2602 
2442 2516 2498 2347 2258 2256 2214 2142 2160 
2237 2235 2168 2199 2365 2498 2372 2458 2469 
2327 2186 2204 2305 2369 2427 2508 2506 2390 
2337 2441 2489 2339 2321 2764 3384 3551 3110 
2597 2444 2450 2300 2115 2143 2284 2291 2190 
2163 2203 2186 2158 2228 2389 2462 2366 2398 
2371 2234 2122 2155 2257 2319 2363 2416 2410 
2339 2315 2324 2217 2092 2389 3195 3909 3874 
3191 2600 2457 2422 2224 2088 2226 2431 2432 
2299 2223 2193 2126 2092 2160 2240 2242 2335 
2330 2298 2243 2201 2192 2206 2245 2295 2289 
2233 2257 2366 2334 2098 2117 2874 4001 4546 
4054 3100 2553 2498 2440 2235 2182 2371 2519 
2449 2311 2251 2208 2122 2062 2084 2102 2108 
2302 2283 2269 2308 2325 2242 2152 2184 2254 
2198 2120 2256 2464 2366 2110 2470 3728 4966 
5068 4030 2924 2529 2538 2410 2205 2230 2407 
2445 2323 2242 2251 2235 2169 2126 2131 2131 
2162 2260 2229 2232 2319 2342 2215 2113 2184 
2262 2181 2133 2317 2452 2234 2104 2878 4400 
5425 5049 3764 2798 2564 2519 2309 2159 2251 
2358 2297 2196 2211 2258 2220 2155 2146 2175 
2180 2203 2229 2194 2229 2324 2302 2149 2099 
2223 2285 2184 2161 2304 2289 2017 2101 3073 
4379 4872 4207 3178 2680 2618 2486 2256 2224 
2348 2335 2183 2129 2218 2250 2149 2062 2090 
2144 2136 2135 2240 2236 2319 2406 2322 2132 
2100 2239 2281 2155 2106 2189 2144 1981 2200 
2990 3712 3615 2925 2433 2497 2633 2498 2303 
2354 2451 2319 2095 2059 2182 2217 2119 2054 
2117 2169 2131 2091 2260 2295 2398 2473 2366 
2168 2124 2238 2261 2113 2022 2094 2160 2157 
2328 2702 2888 2535 2000 1912 2286 2539 2434 
2277 2339 2402 2233 2004 1986 2126 2200 2179 
2193 2274 2309 2237 2135 2230 2265 2344 2413 
2356 2229 2206 2291 2287 2126 2018 2098 2240 
2289 2336 2429 2416 2094 1705 1716 2071 2294 
2203 2078 2151 2232 2122 1968 1990 2124 2196 
2209 2258 2344 2379 2306 2167 2154 2174 2232 
2312 2330 2307 2340 2414 2393 2253 2157 2180 
2234 2239 2301 2466 2509 2199 1776 1695 1953 
2139 2068 1961 2032 2132 2094 2021 2059 2135 
2139 2118 2148 2226 2281 2257 2157 2093 2139 
2203 2265 2297 2347 2452 2545 2543 2484 2448 
2380 2264 2241 2459 2834 2916 2478 1921 1784 
2057 2297 2267 2126 2104 2144 2130 2087 2077 
2067 2035 2028 2058 2113 2169 2207 2186 2082 
2174 2231 2187 2144 2263 2498 2641 2651 2695 
2841 2849 2676 2604 2832 3159 3139 2628 2126 
2061 2289 2452 2400 2238 2143 2112 2098 2069 
2019 1966 1984 2083 2153 2147 2147 2206 2237 
9993 9872 9742 8637 6297 3728 2146 1826 2140 
2377 2328 2136 1921 1750 1708 1790 1857 1855 
1991 2405 2719 2469 1707 1180 1406 2039 2449 
2401 2247 2235 2255 2178 2078 2098 2169 2149 
2092 9835 9794 10153 9957 8346 5663 3148 1796 
1662 2041 2252 2166 1985 1854 1776 1693 1610 
1577 1695 2001 2273 2256 1904 1599 1684 2067 
2377 2391 2273 2223 2233 2218 2156 2148 2178 
2163 2128 9728 9432 9731 10131 9601 7676 4941 
2588 1521 1649 2109 2244 2087 1956 1933 1860 
1722 1653 1722 1861 1966 2028 2030 2021 2067 
2207 2322 2305 2218 2195 2248 2266 2200 2170 
2238 2309 2282 9764 9244 9233 9690 9907 9116 
7073 4377 2264 1567 1911 2288 2223 2015 1983 
2009 1930 1844 1869 1898 1838 1815 1959 2166 
2251 2240 2207 2199 2203 2240 2281 2220 2082 
2066 2264 2449 2350 9804 9270 9035 9185 9449 
9445 8584 6502 3855 2028 1672 2090 2293 2106 
1958 1987 1996 1943 1950 1967 1884 1793 1909 
2157 2277 2232 2172 2193 2227 2237 2228 2164 
2073 2103 2275 2320 2044 9715 9286 8944 8752 
8643 8777 8827 7908 5630 3065 1681 1704 2146 
2219 2012 1920 1953 1970 1979 2006 1999 1956 
2016 2178 2293 2302 2274 2243 2179 2139 2207 
2323 2357 2275 2109 1897 1791 9398 9085 8582 
8192 7875 7868 8268 8359 7102 4656 2439 1575 
1819 2189 2142 1969 1953 2016 2016 1988 2011 
2063 2119 2187 2280 2356 2352 2244 2132 2180 
2401 2580 2509 2169 1807 1831 2561 8709 8627 
7888 7340 7180 7303 7744 8300 8099 6486 4047 
2165 1644 1995 2207 2086 2010 2060 2053 1946 
1905 1990 2079 2119 2187 2283 2325 2277 2395 
2561 2686 2565 2183 1984 2179 3146 4942 7581 
8034 7256 6422 6324 6789 7387 8102 8559 7892 
5814 3319 1833 1759 2149 2147 2034 2035 2085 
2002 1887 1904 1999 2057 2100 2168 2279 2382 
2638 2680 2436 2018 1847 2482 3847 5763 7821 
6181 7403 7086 6021 5465 5804 6558 7412 8187 
8209 6811 4412 2428 1844 2154 2317 2109 2009 
2125 2207 2076 1967 1997 2063 2108 2151 2356 
2523 2489 2222 1937 1999 2804 4452 6476 8287 
9471 4746 6576 7136 6270 5085 4675 5093 5941 
6898 7413 6783 5029 3222 2445 2589 2652 2238 
1946 2080 2352 2269 2063 2004 2058 2103 2127 
2308 2325 2013 1739 2132 3387 5201 7106 8569 
9334 9416 3534 5375 6708 6594 5404 4281 3932 
4373 5315 6195 6251 5257 3958 3335 3425 3333 
2619 1998 1961 2280 2253 2034 1948 2021 2077 
2032 2229 2187 2063 2399 3750 5850 7799 8911 
9177 8974 8696 2680 3914 5373 6069 5670 4712 
3939 3793 4357 5246 5691 5259 4432 4050 4206 
4090 3246 2377 2095 2288 2246 2035 1979 2093 
2102 1917 2151 2583 3357 4564 6268 8018 9099 
9174 8633 8174 8191 2205 2689 3644 4546 4987 
4944 4599 4241 4232 4669 5078 4951 4470 4290 
4566 4629 4025 3252 2908 2927 2767 2453 2320 
2344 2230 2023 2398 3762 5635 7269 8320 8822 
8834 8375 7745 7448 7706 2121 2165 2474 2938 
3518 4168 4605 4566 4271 4183 4316 4289 4070 
4104 4575 4975 4872 4500 4352 4311 4029 3473 
2999 2641 2215 2118 3146 5369 7735 9006 8964 
8334 7760 7303 6922 6785 6987 2280 2243 2224 
2175 2313 2861 3573 3940 3862 3708 3680 3612 
3518 3780 4531 5303 5605 5590 5652 5800 5509 
4708 3691 2746 2144 2584 4338 6819 8743 9158 
8344 7310 6675 6399 6313 6383 6560 2446 2441 
2405 2218 2013 2074 2434 2848 3158 3385 3478 
3345 3228 3616 4599 5619 6152 6337 6612 6997 
6898 5934 4325 2808 2307 3444 5654 7735 8648 
8233 7213 6357 5906 5818 6057 6470 6799 2489 
2450 2435 2377 2245 2111 2077 2238 2647 3178 
3499 3439 3329 3717 4712 5777 6400 6729 7203 
7797 7829 6680 4614 2833 2686 4380 6632 7991 
7927 7014 6140 5655 5446 5509 5938 6531 6931 
2502 2395 2309 2323 2396 2410 2321 2259 2425 
2838 3250 3444 3551 3922 4727 5692 6469 7087 
7780 8410 8293 6854 4533 2818 3071 5007 6976 
7640 6949 5885 5280 5142 5108 5127 5352 5711 
5953 2595 2473 2315 2276 2380 2500 2504 2388 
2279 2352 2679 3141 3564 3954 4538 5444 6529 
7564 8395 8787 8276 6561 4240 2821 3380 5249 
6776 6897 5920 4941 4603 4654 4586 4319 4102 
4076 4134 2711 2614 2452 2372 2397 2448 2455 
2370 2189 2063 2252 2782 3336 3691 4136 5119 
6592 7975 8745 8721 7846 6117 4098 3060 3731 
5301 6335 6075 5035 4225 4019 4000 3726 3233 
2834 2687 2702 2743 2659 2508 2430 2435 2440 
2429 2407 2321 2203 2274 2645 3054 3266 3621 
4723 6499 8070 8639 8197 7147 5729 4266 3595 
4151 5246 5806 5325 4354 3683 3423 3179 2777 
2416 2259 2240 2263 2727 2643 2471 2357 2370 
2432 2489 2562 2606 2554 2519 2656 2847 2899 
3133 4211 6119 7799 8233 7477 6360 5372 4551 