# vtk DataFile Version 3.0
vtk output
ASCII
DATASET POLYDATA
POINTS 81 float
120 123 105 119.889 122.525 104.89 119.759 122.052 104.793 
119.621 121.581 104.699 119.47 121.114 104.604 119.313 120.649 104.509 
119.124 120.196 104.415 118.921 119.748 104.322 118.672 119.321 104.249 
118.411 118.899 104.185 118.131 118.487 104.142 117.849 118.076 104.103 
117.565 117.667 104.063 117.262 117.272 104.018 116.953 116.882 103.972 
116.614 116.516 103.934 116.255 116.169 103.902 115.888 115.832 103.873 
115.504 115.513 103.838 115.12 115.197 103.79 114.737 114.881 103.735 
114.362 114.56 103.651 113.99 114.239 103.557 113.622 113.92 103.445 
113.242 113.617 103.329 112.857 113.321 103.211 112.463 113.039 103.086 
112.068 112.76 102.958 111.68 112.483 102.808 111.338 112.197 102.583 
111.005 111.913 102.341 110.68 111.637 102.08 110.37 111.386 101.779 
110.065 111.155 101.457 109.762 110.935 101.126 109.466 110.764 100.762 
109.167 110.623 100.387 108.865 110.497 100.008 108.551 110.411 99.6289 
108.235 110.347 99.2472 120 123 105 120.098 123.477 105.114 
120.17 123.955 105.238 120.229 124.435 105.367 120.255 124.918 105.491 
120.268 125.403 105.613 120.267 125.89 105.725 120.263 126.379 105.833 
120.265 126.868 105.937 120.271 127.357 106.04 120.289 127.846 106.144 
120.31 128.334 106.247 120.338 128.825 106.34 120.367 129.316 106.427 
120.407 129.812 106.482 120.453 130.308 106.523 120.518 130.803 106.524 
120.59 131.298 106.512 120.667 131.791 106.479 120.743 132.284 106.442 
120.804 132.778 106.401 120.858 133.273 106.359 120.894 133.769 106.307 
120.923 134.265 106.249 120.938 134.757 106.163 120.948 135.248 106.065 
120.949 135.731 105.938 120.946 136.212 105.802 120.932 136.69 105.655 
120.914 137.167 105.508 120.871 137.647 105.373 120.816 138.127 105.245 
120.716 138.605 105.138 120.598 139.08 105.038 120.447 139.546 104.938 
120.289 140.009 104.835 120.129 140.464 104.704 119.976 140.918 104.562 
119.841 141.365 104.382 119.744 141.801 104.158 119.662 142.229 103.913 

LINES 2 83
40 0 1 2 3 4 5 6 7 8 9 10 11 12 13 14 15 16 17 18 19 20 21 22 23 24 25 26 27 28 29 30 31 32 33 34 35 36 37 38 39 
41 40 41 42 43 44 45 46 47 48 49 50 51 52 53 54 55 56 57 58 59 60 61 62 63 64 65 66 67 68 69 70 71 72 73 74 75 76 77 78 79 80 

CELL_DATA 2
POINT_DATA 81
SCALARS scalars float
LOOKUP_TABLE default
3625.85 3569.4 3511.11 3477.21 3431.43 3416.45 3412.02 3411.98 3426.7 
3467.89 3481.48 3499.82 3431.16 3382.43 3401.57 3492.51 3665.69 3863 
4037.96 4244.99 4323.13 4250.43 4241.65 4231.66 4177.23 4189.52 4295.67 
4365.93 4357.23 4284.33 4193.33 3977.88 3727.38 3421.25 3423.76 3524.46 
3637.5 3753.4 3825.37 3930.06 3625.85 3644.21 3672.17 3663.12 3628.85 
3559.37 3452.93 3354.82 3249.76 3167.83 3097.55 3033.13 2970.74 2911.76 
2852.76 2817.75 2798.43 2804.9 2825.78 2863.65 2911.85 2989.63 3085.36 
3214.68 3358.58 3499.95 3615.49 3670.21 3639.36 3537.27 3350.52 3157.68 
2980.35 2854.31 2714.08 2579.63 2401.91 2160.54 2131.06 2098.14 2251.93 

TENSORS tensors float
0.00133798 9.85628e-05 -4.38649e-05 9.85628e-05 0.00166363 0.000136165 -4.38649e-05 0.000136165 0.00117253 
0.00130244 0.000106817 -4.4111e-05 0.000106817 0.0016212 0.000124457 -4.4111e-05 0.000124457 0.00114844 
0.00126772 0.000116577 -4.1868e-05 0.000116577 0.00158123 0.000113067 -4.1868e-05 0.000113067 0.00112962 
0.00125223 0.000116206 -3.089e-05 0.000116206 0.00154967 0.000106898 -3.089e-05 0.000106898 0.00112785 
0.0012386 0.000117633 -1.79936e-05 0.000117633 0.0015165 9.8624e-05 -1.79936e-05 9.8624e-05 0.00112322 
0.00124563 0.000119002 -9.05579e-06 0.000119002 0.00148543 9.36466e-05 -9.05579e-06 9.36466e-05 0.00112314 
0.00126394 0.000120031 -3.90116e-06 0.000120031 0.00145536 8.46579e-05 -3.90116e-06 8.46579e-05 0.00112396 
0.00128219 0.000132266 -8.53327e-06 0.000132266 0.00143625 7.93052e-05 -8.53327e-06 7.93052e-05 0.00112552 
0.00130326 0.000152749 -2.08253e-05 0.000152749 0.001439 7.49961e-05 -2.08253e-05 7.49961e-05 0.00113773 
0.00133438 0.000176679 -3.23087e-05 0.000176679 0.00146447 6.94634e-05 -3.23087e-05 6.94634e-05 0.00116334 
0.00135792 0.000214538 -3.59309e-05 0.000214538 0.00151205 7.05738e-05 -3.59309e-05 7.05738e-05 0.00118625 
0.00138281 0.000246553 -3.3487e-05 0.000246553 0.00155436 7.4165e-05 -3.3487e-05 7.4165e-05 0.00120492 
0.00140328 0.000275604 -1.74741e-05 0.000275604 0.00156273 7.82889e-05 -1.74741e-05 7.82889e-05 0.00119311 
0.00143787 0.000299411 -1.02822e-06 0.000299411 0.00156782 7.48561e-05 -1.02822e-06 7.48561e-05 0.00118337 
0.00149973 0.000309599 1.03245e-05 0.000309599 0.00157686 6.27258e-05 1.03245e-05 6.27258e-05 0.00119582 
0.00158689 0.000306569 1.36975e-05 0.000306569 0.00159535 5.10523e-05 1.36975e-05 5.10523e-05 0.00124294 
0.00169891 0.000305235 1.8533e-05 0.000305235 0.00164385 3.77839e-05 1.8533e-05 3.77839e-05 0.00132085 
0.00181364 0.000300919 2.32352e-05 0.000300919 0.00170946 3.17662e-05 2.32352e-05 3.17662e-05 0.00141696 
0.00190984 0.000300466 3.17752e-05 0.000300466 0.00178972 4.14544e-05 3.17752e-05 4.14544e-05 0.00151835 
0.00201481 0.0003098 4.80587e-05 0.0003098 0.00189099 5.5865e-05 4.80587e-05 5.5865e-05 0.00163066 
0.00206176 0.000309475 6.10331e-05 0.000309475 0.00195564 7.2091e-05 6.10331e-05 7.2091e-05 0.00171258 
0.00206984 0.000301239 7.44798e-05 0.000301239 0.00197433 8.441e-05 7.44798e-05 8.441e-05 0.00176645 
0.00211105 0.000302383 8.97312e-05 0.000302383 0.00201959 9.18404e-05 8.97312e-05 9.18404e-05 0.00183983 
0.00213523 0.000285848 9.34763e-05 0.000285848 0.00202415 8.32791e-05 9.34763e-05 8.32791e-05 0.0018661 
0.00213702 0.000266848 9.86165e-05 0.000266848 0.00199924 6.67672e-05 9.86165e-05 6.67672e-05 0.00188194 
0.00215944 0.000255465 0.00010408 0.000255465 0.00199955 5.47121e-05 0.00010408 5.47121e-05 0.00191478 
0.00217907 0.000241676 0.000102359 0.000241676 0.00201642 5.26409e-05 0.000102359 5.26409e-05 0.00195273 
0.00216695 0.00022325 0.000107183 0.00022325 0.00202213 6.16567e-05 0.000107183 6.16567e-05 0.00197827 
0.00209687 0.000224033 0.000132989 0.000224033 0.00200613 0.000101497 0.000132989 0.000101497 0.00198671 
0.00204314 0.000234906 0.000166479 0.000234906 0.00198391 0.00012243 0.000166479 0.00012243 0.00199105 
0.00201865 0.000246085 0.000198397 0.000246085 0.0019752 0.000130725 0.000198397 0.000130725 0.00200329 
0.00195106 0.000237429 0.000251784 0.000237429 0.00191741 0.000155884 0.000251784 0.000155884 0.00196643 
0.0019087 0.000241455 0.000305801 0.000241455 0.00187092 0.000177267 0.000305801 0.000177267 0.00196855 
0.00187642 0.000262688 0.000362866 0.000262688 0.00182383 0.000185195 0.000362866 0.000185195 0.00200958 
0.00184807 0.000236579 0.000404423 0.000236579 0.00178097 0.000173075 0.000404423 0.000173075 0.00205709 
0.00182777 0.000197717 0.000430611 0.000197717 0.00171167 0.000159891 0.000430611 0.000159891 0.00206022 
0.00183488 0.000173098 0.00046778 0.000173098 0.00165346 0.000140939 0.00046778 0.000140939 0.00207486 
0.00184354 0.000157714 0.000506008 0.000157714 0.00157732 0.000112977 0.000506008 0.000112977 0.00206814 
0.00181917 0.000146882 0.000543514 0.000146882 0.00146838 8.16184e-05 0.000543514 8.16184e-05 0.00203863 
0.00181008 0.000136277 0.000588799 0.000136277 0.00139024 4.9863e-05 0.000588799 4.9863e-05 0.00205373 
0.00133798 9.85628e-05 -4.38649e-05 9.85628e-05 0.00166363 0.000136165 -4.38649e-05 0.000136165 0.00117253 
0.00135222 8.0566e-05 -3.48033e-05 8.0566e-05 0.00170606 0.000147117 -3.48033e-05 0.000147117 0.00119112 
0.0013663 5.97985e-05 -2.50545e-05 5.97985e-05 0.00174676 0.000159267 -2.50545e-05 0.000159267 0.00121561 
0.0013612 4.16066e-05 -2.28585e-05 4.16066e-05 0.00177262 0.000157943 -2.28585e-05 0.000157943 0.0012165 
0.00134446 1.90472e-05 -2.30199e-05 1.90472e-05 0.00178248 0.00015587 -2.30199e-05 0.00015587 0.00120764 
0.00131507 9.7868e-06 -2.90104e-05 9.7868e-06 0.00176191 0.000148056 -2.90104e-05 0.000148056 0.0011748 
0.00127165 3.61276e-06 -3.68568e-05 3.61276e-06 0.00171905 0.000138304 -3.68568e-05 0.000138304 0.00112318 
0.00123604 7.53414e-06 -4.48638e-05 7.53414e-06 0.00166985 0.000133232 -4.48638e-05 0.000133232 0.00107953 
0.00119913 1.68897e-05 -5.27368e-05 1.68897e-05 0.00161279 0.000128603 -5.27368e-05 0.000128603 0.00103181 
0.00117523 2.43055e-05 -5.85876e-05 2.43055e-05 0.00157345 0.00012763 -5.85876e-05 0.00012763 0.00100343 
0.00115741 3.17432e-05 -6.38661e-05 3.17432e-05 0.00154124 0.000127317 -6.38661e-05 0.000127317 0.000981576 
0.00113804 3.55346e-05 -6.85185e-05 3.55346e-05 0.00151491 0.000119211 -6.85185e-05 0.000119211 0.000958306 
0.00111672 3.60997e-05 -7.38309e-05 3.60997e-05 0.00148998 0.000107425 -7.38309e-05 0.000107425 0.000933417 
0.00108702 3.90505e-05 -7.84942e-05 3.90505e-05 0.00146305 8.5032e-05 -7.84942e-05 8.5032e-05 0.000897731 
0.00105123 4.2672e-05 -8.27124e-05 4.2672e-05 0.00143369 5.59457e-05 -8.27124e-05 5.59457e-05 0.000857115 
0.00101963 5.03033e-05 -8.52649e-05 5.03033e-05 0.00141733 2.70842e-05 -8.52649e-05 2.70842e-05 0.000826224 
0.000992152 5.97263e-05 -8.57781e-05 5.97263e-05 0.00140903 -2.33148e-06 -8.57781e-05 -2.33148e-06 0.000804887 
0.000975355 6.60423e-05 -8.64935e-05 6.60423e-05 0.00142016 -2.2523e-05 -8.64935e-05 -2.2523e-05 0.000802551 
0.000965229 6.94303e-05 -8.7329e-05 6.94303e-05 0.00144304 -3.51756e-05 -8.7329e-05 -3.51756e-05 0.000811392 
0.000962348 6.382e-05 -8.96766e-05 6.382e-05 0.00146866 -4.25824e-05 -8.96766e-05 -4.25824e-05 0.000825791 
0.000963953 5.14021e-05 -9.29662e-05 5.14021e-05 0.00149526 -4.53437e-05 -9.29662e-05 -4.53437e-05 0.00084188 
0.000979044 3.64308e-05 -9.79151e-05 3.64308e-05 0.00151335 -5.46471e-05 -9.79151e-05 -5.46471e-05 0.000860724 
0.00100303 1.87376e-05 -0.000103271 1.87376e-05 0.00152251 -6.96789e-05 -0.000103271 -6.96789e-05 0.000880833 
0.00104076 3.11825e-06 -0.000109351 3.11825e-06 0.00154051 -9.24647e-05 -0.000109351 -9.24647e-05 0.000914844 
0.00108407 -1.21167e-05 -0.000114651 -1.21167e-05 0.0015619 -0.000122461 -0.000114651 -0.000122461 0.000957775 
0.00112797 -2.58158e-05 -0.000120142 -2.58158e-05 0.00159759 -0.000150302 -0.000120142 -0.000150302 0.00101264 
0.0011624 -3.83714e-05 -0.000124862 -3.83714e-05 0.00163558 -0.000174196 -0.000124862 -0.000174196 0.00107105 
0.00118187 -4.98882e-05 -0.000126359 -4.98882e-05 0.00166531 -0.000188212 -0.000126359 -0.000188212 0.00111743 
0.00118212 -5.96756e-05 -0.000124861 -5.96756e-05 0.00167755 -0.000187479 -0.000124861 -0.000187479 0.00114438 
0.00116679 -7.17505e-05 -0.000118458 -7.17505e-05 0.00166585 -0.000180581 -0.000118458 -0.000180581 0.00114536 
0.00114356 -9.04134e-05 -0.000103896 -9.04134e-05 0.0016345 -0.000164406 -0.000103896 -0.000164406 0.00111481 
0.00111949 -0.000111436 -8.92421e-05 -0.000111436 0.00159351 -0.000149659 -8.92421e-05 -0.000149659 0.00107555 
0.00111205 -0.000141863 -6.75859e-05 -0.000141863 0.00156274 -0.000142299 -6.75859e-05 -0.000142299 0.00103341 
0.00111102 -0.000166964 -5.20111e-05 -0.000166964 0.00153535 -0.000140636 -5.20111e-05 -0.000140636 0.00100505 
0.0011109 -0.000176807 -4.11415e-05 -0.000176807 0.00150731 -0.000150333 -4.11415e-05 -0.000150333 0.000991849 
0.00109836 -0.000181301 -3.10638e-05 -0.000181301 0.00146727 -0.00016555 -3.10638e-05 -0.00016555 0.0009801 
0.00108676 -0.00015031 -2.80162e-05 -0.00015031 0.00140121 -0.000169963 -2.80162e-05 -0.000169963 0.000995233 
0.00105089 -0.00011693 -1.43748e-05 -0.00011693 0.00131196 -0.000179196 -1.43748e-05 -0.000179196 0.000983589 
0.00111195 -8.10634e-05 -1.01125e-05 -8.10634e-05 0.00131096 -0.000175585 -1.01125e-05 -0.000175585 0.00104045 
0.00117114 -4.26757e-05 3.32868e-06 -4.26757e-05 0.00128875 -0.000184084 3.32868e-06 -0.000184084 0.0010785 
0.00124761 -1.83954e-05 1.32603e-05 -1.83954e-05 0.0013217 -0.00019095 1.32603e-05 -0.00019095 0.00113538 

