# vtk DataFile Version 3.0
vtk output
ASCII
DATASET POLYDATA
POINTS 80 float
108.235 110.347 99.2472 108.551 110.411 99.6289 108.865 110.497 100.008 
109.167 110.623 100.387 109.466 110.764 100.762 109.762 110.935 101.126 
110.065 111.155 101.457 110.37 111.386 101.779 110.68 111.637 102.08 
111.005 111.913 102.341 111.338 112.197 102.583 111.68 112.483 102.808 
112.068 112.76 102.958 112.463 113.039 103.086 112.857 113.321 103.211 
113.242 113.617 103.329 113.622 113.92 103.445 113.99 114.239 103.557 
114.362 114.56 103.651 114.737 114.881 103.735 115.12 115.197 103.79 
115.504 115.513 103.838 115.888 115.832 103.873 116.255 116.169 103.902 
116.614 116.516 103.934 116.953 116.882 103.972 117.262 117.272 104.018 
117.565 117.667 104.063 117.849 118.076 104.103 118.131 118.487 104.142 
118.411 118.899 104.185 118.672 119.321 104.249 118.921 119.748 104.322 
119.124 120.196 104.415 119.313 120.649 104.509 119.47 121.114 104.604 
119.621 121.581 104.699 119.759 122.052 104.793 119.889 122.525 104.89 
120 123 105 120.098 123.477 105.114 120.17 123.955 105.238 
120.229 124.435 105.367 120.255 124.918 105.491 120.268 125.403 105.613 
120.267 125.89 105.725 120.263 126.379 105.833 120.265 126.868 105.937 
120.271 127.357 106.04 120.289 127.846 106.144 120.31 128.334 106.247 
120.338 128.825 106.34 120.367 129.316 106.427 120.407 129.812 106.482 
120.453 130.308 106.523 120.518 130.803 106.524 120.59 131.298 106.512 
120.667 131.791 106.479 120.743 132.284 106.442 120.804 132.778 106.401 
120.858 133.273 106.359 120.894 133.769 106.307 120.923 134.265 106.249 
120.938 134.757 106.163 120.948 135.248 106.065 120.949 135.731 105.938 
120.946 136.212 105.802 120.932 136.69 105.655 120.914 137.167 105.508 
120.871 137.647 105.373 120.816 138.127 105.245 120.716 138.605 105.138 
120.598 139.08 105.038 120.447 139.546 104.938 120.289 140.009 104.835 
120.129 140.464 104.704 119.976 140.918 104.562 119.841 141.365 104.382 
119.744 141.801 104.158 119.662 142.229 103.913 
LINES 1 81
80 0 1 2 3 4 5 6 7 8 9 10 11 12 13 14 15 16 17 18 19 20 21 22 23 24 25 26 27 28 29 30 31 32 33 34 35 36 37 38 39 40 41 42 43 44 45 46 47 48 49 50 51 52 53 54 55 56 57 58 59 60 61 62 63 64 65 66 67 68 69 70 71 72 73 74 75 76 77 78 79 

CELL_DATA 1
POINT_DATA 80
SCALARS scalars float
LOOKUP_TABLE default
3930.06 3825.37 3753.4 3637.5 3524.46 3423.76 3421.25 3727.38 3977.88 
4193.33 4284.33 4357.23 4365.93 4295.67 4189.52 4177.23 4231.66 4241.65 
4250.43 4323.13 4244.99 4037.96 3863 3665.69 3492.51 3401.57 3382.43 
3431.16 3499.82 3481.48 3467.89 3426.7 3411.98 3412.02 3416.45 3431.43 
3477.21 3511.11 3569.4 3625.85 3644.21 3672.17 3663.12 3628.85 3559.37 
3452.93 3354.82 3249.76 3167.83 3097.55 3033.13 2970.74 2911.76 2852.76 
2817.75 2798.43 2804.9 2825.78 2863.65 2911.85 2989.63 3085.36 3214.68 
3358.58 3499.95 3615.49 3670.21 3639.36 3537.27 3350.52 3157.68 2980.35 
2854.31 2714.08 2579.63 2401.91 2160.54 2131.06 2098.14 2251.93 
