# vtk DataFile Version 2.0
vtk output
ASCII
DATASET STRUCTURED_POINTS
DIMENSIONS 3 3 3
SPACING 1.000000 1.000000 1.000000 
ORIGIN 0.000000 0.000000 0.000000 
POINT_DATA 27 
SCALARS tensor float 1
LOOKUP_TABLE default
   0.0000000e+00
   0.0000000e+00
   0.0000000e+00
   0.0000000e+00
   0.0000000e+00
   0.0000000e+00
   0.0000000e+00
   0.0000000e+00
   0.0000000e+00
   0.0000000e+00
   0.0000000e+00
   0.0000000e+00
   0.0000000e+00
   1.0000000e+00
   0.0000000e+00
   0.0000000e+00
   0.0000000e+00
   0.0000000e+00
   0.0000000e+00
   0.0000000e+00
   0.0000000e+00
   0.0000000e+00
   0.0000000e+00
   0.0000000e+00
   0.0000000e+00
   0.0000000e+00
   0.0000000e+00
